TITLE = "Target Hydrographs"
VARIABLES = "TIME","VALUE"
ZONE T="Simulated Head for D1", I=200, F=POINT
  1.155682  79.999763
  2.542501  79.998001
  4.206684  79.991081
  6.203703  79.972244
  8.600127  79.931984
  11.475835  79.859673
  14.926685  79.745377
  19.067705  79.580849
  24.036930  79.359322
  29.999998  79.074310
  31.155682  79.018456
  32.542500  78.950676
  34.206684  78.868454
  36.203701  78.768791
  38.600124  78.648087
  41.475834  78.502075
  44.926685  78.325653
  49.067703  78.112717
  54.036930  77.856010
  59.999996  77.546844
  61.155682  77.486885
  62.542500  77.414886
  64.206680  77.328438
  66.203705  77.224617
  68.600128  77.099945
  71.475830  76.950249
  74.926682  76.770515
  79.067703  76.554779
  84.036926  76.295883
  90.000000  75.985336
  91.155678  75.925156
  92.542496  75.852951
  94.206680  75.766319
  96.203697  75.662392
  98.600121  75.537720
  101.475830  75.388199
  104.926682  75.208900
  109.067703  74.993950
  114.036926  74.736359
  119.999992  74.427803
  121.155678  74.368027
  122.542496  74.296326
  124.206680  74.210327
  126.203697  74.107193
  128.600128  73.983543
  131.475830  73.835312
  134.926682  73.657654
  139.067703  73.444801
  144.036926  73.189880
  150.000000  72.884720
  151.155670  72.825607
  152.542496  72.754707
  154.206680  72.669693
  156.203705  72.567764
  158.600128  72.445564
  161.475830  72.299118
  164.926682  72.123642
  169.067703  71.913467
  174.036926  71.661819
  180.000000  71.360664
  181.155670  71.302330
  182.542496  71.232376
  184.206680  71.148491
  186.203690  71.047920
  188.600113  70.927376
  191.475830  70.782921
  194.926682  70.609856
  199.067703  70.402580
  204.036926  70.154434
  209.999985  69.857513
  211.155670  69.800003
  212.542496  69.731033
  214.206680  69.648338
  216.203690  69.549194
  218.600113  69.430359
  221.475830  69.287956
  224.926682  69.117363
  229.067703  68.913055
  234.036926  68.668472
  239.999985  68.375816
  241.155670  68.319130
  242.542496  68.251152
  244.206680  68.169640
  246.203690  68.071930
  248.600113  67.954803
  251.475830  67.814453
  254.926682  67.646309
  259.067688  67.444939
  264.036926  67.203873
  270.000000  66.915421
  271.155670  66.859550
  272.542480  66.792549
  274.206665  66.712204
  276.203705  66.615891
  278.600128  66.500443
  281.475830  66.362099
  284.926666  66.196358
  289.067688  65.997864
  294.036926  65.760231
  300.000000  65.475868
  301.155670  65.420784
  302.542480  65.354729
  304.206665  65.275528
  306.203705  65.180573
  308.600128  65.066757
  311.475830  64.930367
  314.926666  64.766953
  319.067688  64.571243
  324.036926  64.336929
  330.000000  64.056526
  331.155670  64.002205
  332.542480  63.937073
  334.206665  63.858967
  336.203705  63.765331
  338.600128  63.653088
  341.475830  63.518578
  344.926666  63.357414
  349.067688  63.164387
  354.036926  62.933277
  360.000000  62.656689
  361.155670  62.603115
  362.542480  62.538860
  364.206665  62.461819
  366.203705  62.369450
  368.600128  62.258724
  371.475830  62.126026
  374.926666  61.967030
  379.067688  61.776588
  384.036926  61.548561
  390.000000  61.275646
  391.155670  61.222782
  392.542480  61.159382
  394.206665  61.083355
  396.203674  60.992207
  398.600098  60.882938
  401.475830  60.751991
  404.926666  60.595100
  409.067688  60.407200
  414.036926  60.182232
  419.999969  59.912991
  421.155670  59.860836
  422.542480  59.798290
  424.206665  59.723289
  426.203674  59.633366
  428.600098  59.525570
  431.475830  59.396378
  434.926666  59.241570
  439.067688  59.056129
  444.036926  58.834064
  449.999969  58.568253
  451.155670  58.516762
  452.542480  58.455006
  454.206665  58.380951
  456.203674  58.292160
  458.600098  58.185719
  461.475830  58.058136
  464.926666  57.905254
  469.067688  57.722111
  474.036926  57.502781
  479.999969  57.240219
  481.155670  57.189358
  482.542480  57.128357
  484.206665  57.055206
  486.203674  56.967495
  488.600098  56.862343
  491.475830  56.736305
  494.926666  56.585270
  499.067688  56.404324
  504.036896  56.187614
  509.999969  55.928173
  511.155670  55.877914
  512.542480  55.817635
  514.206665  55.745350
  516.203674  55.658676
  518.600098  55.554760
  521.475830  55.430202
  524.926636  55.280937
  529.067688  55.102100
  534.036926  54.887905
  540.000000  54.631454
  541.155640  54.581776
  542.542480  54.522190
  544.206665  54.450737
  546.203674  54.365051
  548.600098  54.262329
  551.475830  54.139191
  554.926636  53.991619
  559.067688  53.814804
  564.036926  53.603024
  570.000000  53.349442
  571.155640  53.300316
  572.542480  53.241398
  574.206665  53.170738
  576.203674  53.086010
  578.600098  52.984425
  581.475830  52.862648
  584.926636  52.716702
  589.067688  52.541832
  594.036926  52.332359
  600.000000  52.081535
ZONE T="Observed Head for D1", I=5, F=POINT
  0.000000  0.000000
  0.000000  0.000000
  0.000000  0.000000
  0.000000  0.000000
  0.000000  0.000000
ZONE T="Simulated Head for L2", I=200, F=POINT
  1.155682  79.883405
  2.542501  79.680960
  4.206684  79.395084
  6.203703  79.023262
  8.600127  78.562393
  11.475835  78.010776
  14.926685  77.369509
  19.067705  76.643549
  24.036930  75.842273
  29.999998  74.979184
  31.155682  74.815574
  32.542500  74.624443
  34.206684  74.402389
  36.203701  74.146078
  38.600124  73.852430
  41.475834  73.518844
  44.926685  73.143398
  49.067703  72.724996
  54.036930  72.263354
  59.999996  71.758719
  61.155682  71.662708
  62.542500  71.549967
  64.206680  71.418064
  66.203705  71.264368
  68.600128  71.086078
  71.475830  70.880246
  74.926682  70.643767
  79.067703  70.373382
  84.036926  70.065547
  90.000000  69.716284
  91.155678  69.649328
  92.542496  69.569982
  94.206680  69.476146
  96.203697  69.365405
  98.600121  69.235009
  101.475830  69.081839
  104.926682  68.902322
  109.067703  68.692385
  114.036926  68.447320
  119.999992  68.161639
  121.155678  68.106571
  122.542496  68.040920
  124.206680  67.962711
  126.203697  67.869653
  128.600128  67.759044
  131.475830  67.627726
  134.926682  67.472003
  139.067703  67.287536
  144.036926  67.069228
  150.000000  66.811069
  151.155670  66.761173
  152.542496  66.701496
  154.206680  66.630148
  156.203705  66.544897
  158.600128  66.443094
  161.475830  66.321602
  164.926682  66.176713
  169.067703  66.004020
  174.036926  65.798322
  180.000000  65.553451
  181.155670  65.506065
  182.542496  65.449304
  184.206680  65.381327
  186.203690  65.299955
  188.600113  65.202574
  191.475830  65.086086
  194.926682  64.946793
  199.067703  64.780310
  204.036926  64.581424
  209.999985  64.343923
  211.155670  64.297938
  212.542496  64.242815
  214.206680  64.176755
  216.203690  64.097602
  218.600113  64.002786
  221.475830  63.889236
  224.926682  63.753294
  229.067703  63.590598
  234.036926  63.395954
  239.999985  63.163178
  241.155670  63.118092
  242.542496  63.064033
  244.206680  62.999221
  246.203690  62.921532
  248.600113  62.828417
  251.475830  62.716849
  254.926682  62.583196
  259.067688  62.423129
  264.036926  62.231485
  270.000000  62.002116
  271.155670  61.957685
  272.542480  61.904401
  274.206665  61.840502
  276.203705  61.763891
  278.600128  61.672046
  281.475830  61.561962
  284.926666  61.430043
  289.067688  61.271989
  294.036926  61.082678
  300.000000  60.855992
  301.155670  60.812079
  302.542480  60.759407
  304.206665  60.696238
  306.203705  60.620488
  308.600128  60.529664
  311.475830  60.420781
  314.926666  60.290272
  319.067688  60.133872
  324.036926  59.946493
  330.000000  59.722052
  331.155670  59.678571
  332.542480  59.626415
  334.206665  59.563858
  336.203705  59.488839
  338.600128  59.398878
  341.475830  59.291016
  344.926666  59.161715
  349.067688  59.006737
  354.036926  58.821027
  360.000000  58.598543
  361.155670  58.555438
  362.542480  58.503732
  364.206665  58.441712
  366.203705  58.367329
  368.600128  58.278128
  371.475830  58.171168
  374.926666  58.042931
  379.067688  57.889217
  384.036926  57.704993
  390.000000  57.484257
  391.155670  57.441488
  392.542480  57.390186
  394.206665  57.328648
  396.203674  57.254839
  398.600098  57.166330
  401.475830  57.060408
  404.926666  56.933502
  409.067688  56.781396
  414.036926  56.599068
  419.999969  56.380532
  421.155670  56.338188
  422.542480  56.287387
  424.206665  56.226445
  426.203674  56.153343
  428.600098  56.065657
  431.475830  55.960492
  434.926666  55.834371
  439.067688  55.683142
  444.036926  55.501834
  449.999969  55.284511
  451.155670  55.242401
  452.542480  55.191884
  454.206665  55.131280
  456.203674  55.058586
  458.600098  54.971391
  461.475830  54.866814
  464.926666  54.741406
  469.067688  54.591037
  474.036926  54.410765
  479.999969  54.194690
  481.155670  54.152822
  482.542480  54.102594
  484.206665  54.042342
  486.203674  53.970064
  488.600098  53.883371
  491.475830  53.779398
  494.926666  53.654713
  499.067688  53.505211
  504.036896  53.325976
  509.999969  53.111140
  511.155670  53.069512
  512.542480  53.019570
  514.206665  52.959661
  516.203674  52.887798
  518.600098  52.801598
  521.475830  52.698217
  524.926636  52.574238
  529.067688  52.425577
  534.036926  52.247349
  540.000000  52.033706
  541.155640  51.992312
  542.542480  51.942648
  544.206665  51.883071
  546.203674  51.811604
  548.600098  51.725880
  551.475830  51.623065
  554.926636  51.499764
  559.067688  51.351912
  564.036926  51.174647
  570.000000  50.962152
  571.155640  50.920975
  572.542480  50.871578
  574.206665  50.812318
  576.203674  50.741231
  578.600098  50.655960
  581.475830  50.553689
  584.926636  50.431036
  589.067688  50.283956
  594.036926  50.107609
  600.000000  49.896206
ZONE T="Observed Head for L2", I=5, F=POINT
  0.000000  0.000000
  0.000000  0.000000
  0.000000  0.000000
  0.000000  0.000000
  0.000000  0.000000
ZONE T="Simulated Head for L1", I=200, F=POINT
  1.155682  76.500952
  2.542501  74.851608
  4.206684  73.819999
  6.203703  73.049930
  8.600127  72.417592
  11.475835  71.868316
  14.926685  71.371656
  19.067705  70.906594
  24.036930  70.455284
  29.999998  70.000036
  31.155682  69.914637
  32.542500  69.815655
  34.206684  69.701106
  36.203701  69.568633
  38.600124  69.415406
  41.475834  69.237941
  44.926685  69.031921
  49.067703  68.791981
  54.036930  68.511464
  59.999996  68.182200
  61.155682  68.118637
  62.542500  68.042703
  64.206680  67.952007
  66.203705  67.843726
  68.600128  67.714484
  71.475830  67.560253
  74.926682  67.376233
  79.067703  67.156714
  84.036926  66.894871
  90.000000  66.582612
  91.155678  66.522166
  92.542496  66.449730
  94.206680  66.362942
  96.203697  66.258988
  98.600121  66.134502
  101.475830  65.985473
  104.926682  65.807133
  109.067703  65.593792
  114.036926  65.338701
  119.999992  65.033843
  121.155678  64.974806
  122.542496  64.904030
  124.206680  64.819191
  126.203697  64.717519
  128.600128  64.595702
  131.475830  64.449793
  134.926682  64.275078
  139.067703  64.065957
  144.036926  63.815766
  150.000000  63.516597
  151.155670  63.458655
  152.542496  63.389183
  154.206680  63.305893
  156.203705  63.206068
  158.600128  63.086437
  161.475830  62.943119
  164.926682  62.771471
  169.067703  62.565972
  174.036926  62.320052
  180.000000  62.025905
  181.155670  61.968934
  182.542496  61.900621
  184.206680  61.818716
  186.203690  61.720538
  188.600113  61.602877
  191.475830  61.461899
  194.926682  61.293035
  199.067703  61.090840
  204.036926  60.848834
  209.999985  60.559321
  211.155670  60.503245
  212.542496  60.436004
  214.206680  60.355379
  216.203690  60.258732
  218.600113  60.142896
  221.475830  60.004096
  224.926682  59.837824
  229.067703  59.638716
  234.036926  59.400378
  239.999985  59.115215
  241.155670  59.059981
  242.542496  58.993743
  244.206680  58.914326
  246.203690  58.819118
  248.600113  58.705001
  251.475830  58.568255
  254.926682  58.404433
  259.067688  58.208242
  264.036926  57.973372
  270.000000  57.692331
  271.155670  57.637893
  272.542480  57.572610
  274.206665  57.494335
  276.203705  57.400493
  278.600128  57.288009
  281.475830  57.153212
  284.926666  56.991717
  289.067688  56.798297
  294.036926  56.566731
  300.000000  56.289613
  301.155670  56.235934
  302.542480  56.171562
  304.206665  56.094372
  306.203705  56.001832
  308.600128  55.890904
  311.475830  55.757965
  314.926666  55.598688
  319.067688  55.407915
  324.036926  55.179496
  330.000000  54.906127
  331.155670  54.853173
  332.542480  54.789667
  334.206665  54.713518
  336.203705  54.622218
  338.600128  54.512778
  341.475830  54.381614
  344.926666  54.224457
  349.067688  54.036213
  354.036926  53.810807
  360.000000  53.541017
  361.155670  53.488758
  362.542480  53.426083
  364.206665  53.350926
  366.203705  53.260816
  368.600128  53.152795
  371.475830  53.023332
  374.926666  52.868203
  379.067688  52.682376
  384.036926  52.459852
  390.000000  52.193493
  391.155670  52.141895
  392.542480  52.080015
  394.206665  52.005810
  396.203674  51.916838
  398.600098  51.810339
  401.475830  51.685161
  404.926666  51.533167
  409.067688  51.350337
  414.036926  51.131059
  419.999969  50.868377
  421.155670  50.817486
  422.542480  50.756446
  424.206665  50.683239
  426.203674  50.595454
  428.600098  50.490206
  431.475830  50.364044
  434.926666  50.212849
  439.067688  50.031709
  444.036926  49.814759
  449.999969  49.555024
  451.155670  49.504709
  452.542480  49.444362
  454.206665  49.371994
  456.203674  49.285221
  458.600098  49.181189
  461.475830  49.056489
  464.926666  48.907052
  469.067688  48.728010
  474.036926  48.513575
  479.999969  48.256837
  481.155670  48.207101
  482.542480  48.147450
  484.206665  48.075915
  486.203674  47.990136
  488.600098  47.887297
  491.475830  47.764024
  494.926666  47.616290
  499.067688  47.439283
  504.036896  47.227269
  509.999969  46.973415
  511.155670  46.924238
  512.542480  46.865257
  514.206665  46.794522
  516.203674  46.709700
  518.600098  46.608006
  521.475830  46.486101
  524.926636  46.340003
  529.067688  46.164946
  534.036926  45.955258
  540.000000  45.704172
  541.155640  45.655530
  542.542480  45.597189
  544.206665  45.527219
  546.203674  45.443320
  548.600098  45.342722
  551.475830  45.222132
  554.926636  45.077600
  559.067688  44.904415
  564.036926  44.696957
  570.000000  44.448523
  571.155640  44.400393
  572.542480  44.342667
  574.206665  44.273437
  576.203674  44.190416
  578.600098  44.090874
  581.475830  43.971543
  584.926636  43.828515
  589.067688  43.657124
  594.036926  43.451801
  600.000000  43.205911
ZONE T="Observed Head for L1", I=5, F=POINT
  0.000000  0.000000
  0.000000  0.000000
  0.000000  0.000000
  0.000000  0.000000
  0.000000  0.000000
ZONE T="Simulated Head for L3", I=200, F=POINT
  1.155682  78.702287
  2.542501  77.535921
  4.206684  76.557362
  6.203703  75.743167
  8.600127  75.053379
  11.475835  74.451484
  14.926685  73.909624
  19.067705  73.408044
  24.036930  72.932575
  29.999998  72.472060
  31.155682  72.386503
  32.542500  72.288530
  34.206684  72.176851
  36.203701  72.050110
  38.600124  71.906857
  41.475834  71.745510
  44.926685  71.564288
  49.067703  71.361092
  54.036930  71.133379
  59.999996  70.878011
  61.155682  70.829156
  62.542500  70.771385
  64.206680  70.703214
  66.203705  70.622928
  68.600128  70.528571
  71.475830  70.417899
  74.926682  70.288354
  79.067703  70.136965
  84.036926  69.960315
  90.000000  69.754402
  91.155678  69.714713
  92.542496  69.667389
  94.206680  69.611020
  96.203697  69.543943
  98.600121  69.464212
  101.475830  69.369552
  104.926682  69.257292
  109.067703  69.124326
  114.036926  68.966996
  119.999992  68.781003
  121.155678  68.745061
  122.542496  68.702070
  124.206680  68.650681
  126.203697  68.589285
  128.600128  68.515982
  131.475830  68.428521
  134.926682  68.324245
  139.067703  68.200004
  144.036926  68.052070
  150.000000  67.876034
  151.155670  67.841970
  152.542496  67.801173
  154.206680  67.752320
  156.203705  67.693845
  158.600128  67.623872
  161.475830  67.540181
  164.926682  67.440120
  169.067703  67.320534
  174.036926  67.177671
  180.000000  67.007060
  181.155670  66.974023
  182.542496  66.934423
  184.206680  66.886962
  186.203690  66.830090
  188.600113  66.761954
  191.475830  66.680345
  194.926682  66.582616
  199.067703  66.465617
  204.036926  66.325568
  209.999985  66.157964
  211.155670  66.125497
  212.542496  66.086558
  214.206680  66.039867
  216.203690  65.983882
  218.600113  65.916761
  221.475830  65.836296
  224.926682  65.739848
  229.067703  65.624255
  234.036926  65.485727
  239.999985  65.319723
  241.155670  65.287561
  242.542496  65.248976
  244.206680  65.202691
  246.203690  65.147168
  248.600113  65.080574
  251.475830  65.000698
  254.926682  64.904900
  259.067688  64.790004
  264.036926  64.652214
  270.000000  64.486958
  271.155670  64.454931
  272.542480  64.416508
  274.206665  64.370405
  276.203705  64.315087
  278.600128  64.248718
  281.475830  64.169088
  284.926666  64.073547
  289.067688  63.958914
  294.036926  63.821365
  300.000000  63.656317
  301.155670  63.624330
  302.542480  63.585946
  304.206665  63.539884
  306.203705  63.484608
  308.600128  63.418274
  311.475830  63.338673
  314.926666  63.243141
  319.067688  63.128487
  324.036926  62.990876
  330.000000  62.825691
  331.155670  62.793674
  332.542480  62.755256
  334.206665  62.709145
  336.203705  62.653803
  338.600128  62.587388
  341.475830  62.507673
  344.926666  62.411993
  349.067688  62.297141
  354.036926  62.159263
  360.000000  61.993725
  361.155670  61.961641
  362.542480  61.923132
  364.206665  61.876916
  366.203705  61.821450
  368.600128  61.754871
  371.475830  61.674955
  374.926666  61.579023
  379.067688  61.463860
  384.036926  61.325591
  390.000000  61.159560
  391.155670  61.127379
  392.542480  61.088753
  394.206665  61.042397
  396.203674  60.986757
  398.600098  60.920045
  401.475830  60.841210
  404.926666  60.745969
  409.067688  60.631124
  414.036926  60.492908
  419.999969  60.326723
  421.155670  60.294505
  422.542480  60.255828
  424.206665  60.209400
  426.203674  60.153662
  428.600098  60.086744
  431.475830  60.006403
  434.926666  59.909936
  439.067688  59.794102
  444.036926  59.654996
  449.999969  59.487921
  451.155670  59.455535
  452.542480  59.416667
  454.206665  59.370012
  456.203674  59.314009
  458.600098  59.246783
  461.475830  59.166081
  464.926666  59.069189
  469.067688  58.952855
  474.036926  58.813160
  479.999969  58.645387
  481.155670  58.612867
  482.542480  58.573835
  484.206665  58.526986
  486.203674  58.470751
  488.600098  58.403249
  491.475830  58.322216
  494.926666  58.224928
  499.067688  58.108119
  504.036896  57.967852
  509.999969  57.799401
  511.155670  57.766748
  512.542480  57.727558
  514.206665  57.680519
  516.203674  57.624058
  518.600098  57.556283
  521.475830  57.474923
  524.926636  57.377244
  529.067688  57.259965
  534.036926  57.119141
  540.000000  56.950014
  541.155640  56.917233
  542.542480  56.877887
  544.206665  56.830663
  546.203674  56.773977
  548.600098  56.705933
  551.475830  56.624250
  554.926636  56.526186
  559.067688  56.408448
  564.036926  56.267070
  570.000000  56.097288
  571.155640  56.064379
  572.542480  56.024879
  574.206665  55.977469
  576.203674  55.920565
  578.600098  55.852260
  581.475830  55.770261
  584.926636  55.671820
  589.067688  55.553631
  594.036926  55.411715
  600.000000  55.241289
ZONE T="Observed Head for L3", I=5, F=POINT
  0.000000  0.000000
  0.000000  0.000000
  0.000000  0.000000
  0.000000  0.000000
  0.000000  0.000000
ZONE T="Simulated Head for D2", I=200, F=POINT
  1.155682  79.999992
  2.542501  79.999947
  4.206684  79.999672
  6.203703  79.998680
  8.600127  79.995842
  11.475835  79.989067
  14.926685  79.974960
  19.067705  79.948616
  24.036930  79.903511
  29.999998  79.831512
  31.155682  79.816902
  32.542500  79.798439
  34.206684  79.775009
  36.203701  79.745125
  38.600124  79.706886
  41.475834  79.657799
  44.926685  79.594727
  49.067703  79.513672
  54.036930  79.409676
  59.999996  79.276627
  61.155682  79.250542
  62.542500  79.218826
  64.206680  79.180199
  66.203705  79.133072
  68.600128  79.075470
  71.475830  79.004967
  74.926682  78.918533
  79.067703  78.812454
  84.036926  78.682167
  90.000000  78.522095
  91.155678  78.490936
  92.542496  78.453354
  94.206680  78.407997
  96.203697  78.353210
  98.600121  78.286987
  101.475830  78.206856
  104.926682  78.109833
  109.067703  77.992279
  114.036926  77.849739
  119.999992  77.676842
  121.155678  77.643265
  122.542496  77.602882
  124.206680  77.554283
  126.203697  77.495789
  128.600128  77.425346
  131.475830  77.340485
  134.926682  77.238197
  139.067703  77.114868
  144.036926  76.966095
  150.000000  76.786591
  151.155670  76.751762
  152.542496  76.709923
  154.206680  76.659645
  156.203705  76.599213
  158.600128  76.526558
  161.475830  76.439201
  164.926682  76.334122
  169.067703  76.207710
  174.036926  76.055595
  180.000000  75.872520
  181.155670  75.837021
  182.542496  75.794395
  184.206680  75.743202
  186.203690  75.681717
  188.600113  75.607864
  191.475830  75.519142
  194.926682  75.412544
  199.067703  75.284447
  204.036926  75.130501
  209.999985  74.945473
  211.155670  74.909599
  212.542496  74.866539
  214.206680  74.814850
  216.203690  74.752785
  218.600113  74.678276
  221.475830  74.588806
  224.926682  74.481369
  229.067703  74.352348
  234.036926  74.197403
  239.999985  74.011307
  241.155670  73.975235
  242.542496  73.931938
  244.206680  73.879967
  246.203690  73.817596
  248.600113  73.742722
  251.475830  73.652847
  254.926682  73.544960
  259.067688  73.415443
  264.036926  73.259956
  270.000000  73.073280
  271.155670  73.037102
  272.542480  72.993683
  274.206665  72.941566
  276.203705  72.879028
  278.600128  72.803963
  281.475830  72.713875
  284.926666  72.605743
  289.067688  72.475967
  294.036926  72.320198
  300.000000  72.133232
  301.155670  72.096992
  302.542480  72.053505
  304.206665  72.001320
  306.203705  71.938690
  308.600128  71.863533
  311.475830  71.773338
  314.926666  71.665092
  319.067688  71.535179
  324.036926  71.379272
  330.000000  71.192162
  331.155670  71.155899
  332.542480  71.112381
  334.206665  71.060165
  336.203705  70.997498
  338.600128  70.922287
  341.475830  70.832047
  344.926666  70.723740
  349.067688  70.593773
  354.036926  70.437813
  360.000000  70.250648
  361.155670  70.214371
  362.542480  70.170845
  364.206665  70.118607
  366.203705  70.055923
  368.600128  69.980705
  371.475830  69.890442
  374.926666  69.782120
  379.067688  69.652138
  384.036926  69.496155
  390.000000  69.308983
  391.155670  69.272705
  392.542480  69.229172
  394.206665  69.176933
  396.203674  69.114250
  398.600098  69.039032
  401.475830  68.948769
  404.926666  68.840454
  409.067688  68.710480
  414.036926  68.554520
  419.999969  68.367378
  421.155670  68.331116
  422.542480  68.287590
  424.206665  68.235367
  426.203674  68.172707
  428.600098  68.097511
  431.475830  68.007278
  434.926666  67.899002
  439.067688  67.769081
  444.036926  67.613182
  449.999969  67.426109
  451.155670  67.389862
  452.542480  67.346352
  454.206665  67.294151
  456.203674  67.231506
  458.600098  67.156334
  461.475830  67.066132
  464.926666  66.957893
  469.067688  66.828011
  474.036926  66.672157
  479.999969  66.485138
  481.155670  66.448891
  482.542480  66.405403
  484.206665  66.353210
  486.203674  66.290581
  488.600098  66.215431
  491.475830  66.125252
  494.926666  66.017036
  499.067688  65.887184
  504.036896  65.731361
  509.999969  65.544388
  511.155670  65.508156
  512.542480  65.464668
  514.206665  65.412491
  516.203674  65.349876
  518.600098  65.274734
  521.475830  65.184578
  524.926636  65.076385
  529.067688  64.946556
  534.036926  64.790771
  540.000000  64.603836
  541.155640  64.567604
  542.542480  64.524132
  544.206665  64.471962
  546.203674  64.409355
  548.600098  64.334236
  551.475830  64.244087
  554.926636  64.135918
  559.067688  64.006119
  564.036926  63.850357
  570.000000  63.663452
  571.155640  63.627232
  572.542480  63.583763
  574.206665  63.531601
  576.203674  63.469009
  578.600098  63.393902
  581.475830  63.303772
  584.926636  63.195621
  589.067688  63.065842
  594.036926  62.910107
  600.000000  62.723236
ZONE T="Observed Head for D2", I=5, F=POINT
  0.000000  0.000000
  0.000000  0.000000
  0.000000  0.000000
  0.000000  0.000000
  0.000000  0.000000
ZONE T="Simulated Head for D3", I=200, F=POINT
  1.155682  80.000000
  2.542501  80.000000
  4.206684  80.000000
  6.203703  80.000000
  8.600127  79.999985
  11.475835  79.999954
  14.926685  79.999847
  19.067705  79.999565
  24.036930  79.998871
  29.999998  79.997215
  31.155682  79.996857
  32.542500  79.996384
  34.206684  79.995735
  36.203701  79.994827
  38.600124  79.993538
  41.475834  79.991669
  44.926685  79.988899
  49.067703  79.984726
  54.036930  79.978378
  59.999996  79.968636
  61.155682  79.966667
  62.542500  79.964180
  64.206680  79.961029
  66.203705  79.956993
  68.600128  79.951775
  71.475830  79.944962
  74.926682  79.935989
  79.067703  79.924049
  84.036926  79.908035
  90.000000  79.886406
  91.155678  79.882118
  92.542496  79.876854
  94.206680  79.870346
  96.203697  79.862267
  98.600121  79.852188
  101.475830  79.839561
  104.926682  79.823631
  109.067703  79.803429
  114.036926  79.777657
  119.999992  79.744614
  121.155678  79.738136
  122.542496  79.730240
  124.206680  79.720612
  126.203697  79.708824
  128.600128  79.694351
  131.475830  79.676529
  134.926682  79.654495
  139.067703  79.627144
  144.036926  79.593063
  150.000000  79.550407
  151.155670  79.542076
  152.542496  79.531982
  154.206680  79.519737
  156.203705  79.504860
  158.600128  79.486732
  161.475830  79.464607
  164.926682  79.437515
  169.067703  79.404259
  174.036926  79.363297
  180.000000  79.312675
  181.155670  79.302811
  182.542496  79.290894
  184.206680  79.276482
  186.203690  79.259026
  188.600113  79.237862
  191.475830  79.212135
  194.926682  79.180817
  199.067703  79.142586
  204.036926  79.095818
  209.999985  79.038422
  211.155670  79.027252
  212.542496  79.013779
  214.206680  78.997520
  216.203690  78.977859
  218.600113  78.954079
  221.475830  78.925262
  224.926682  78.890282
  229.067703  78.847740
  234.036926  78.795891
  239.999985  78.732544
  241.155670  78.720222
  242.542496  78.705376
  244.206680  78.687477
  246.203690  78.665871
  248.600113  78.639771
  251.475830  78.608200
  254.926682  78.569946
  259.067688  78.523529
  264.036926  78.467110
  270.000000  78.398361
  271.155670  78.385002
  272.542480  78.368912
  274.206665  78.349518
  276.203705  78.326141
  278.600128  78.297920
  281.475830  78.263824
  284.926666  78.222580
  289.067688  78.172600
  294.036926  78.111954
  300.000000  78.038208
  301.155670  78.023880
  302.542480  78.006638
  304.206665  77.985870
  306.203705  77.960838
  308.600128  77.930649
  311.475830  77.894203
  314.926666  77.850151
  319.067688  77.796852
  324.036926  77.732246
  330.000000  77.653809
  331.155670  77.638573
  332.542480  77.620239
  334.206665  77.598167
  336.203705  77.571587
  338.600128  77.539536
  341.475830  77.500877
  344.926666  77.454185
  349.067688  77.397728
  354.036926  77.329376
  360.000000  77.246490
  361.155670  77.230392
  362.542480  77.211029
  364.206665  77.187729
  366.203705  77.159668
  368.600128  77.125862
  371.475830  77.085098
  374.926666  77.035889
  379.067688  76.976440
  384.036926  76.904518
  390.000000  76.817390
  391.155670  76.800476
  392.542480  76.780128
  394.206665  76.755653
  396.203674  76.726189
  398.600098  76.690697
  401.475830  76.647919
  404.926666  76.596313
  409.067688  76.534004
  414.036926  76.458672
  419.999969  76.367493
  421.155670  76.349792
  422.542480  76.328506
  424.206665  76.302902
  426.203674  76.272095
  428.600098  76.234993
  431.475830  76.190292
  434.926666  76.136398
  439.067688  76.071342
  444.036926  75.992760
  449.999969  75.897697
  451.155670  75.879242
  452.542480  75.857056
  454.206665  75.830383
  456.203674  75.798279
  458.600098  75.759644
  461.475830  75.713104
  464.926666  75.657005
  469.067688  75.589340
  474.036926  75.507629
  479.999969  75.408852
  481.155670  75.389679
  482.542480  75.366638
  484.206665  75.338928
  486.203674  75.305595
  488.600098  75.265480
  491.475830  75.217178
  494.926666  75.158974
  499.067688  75.088799
  504.036896  75.004089
  509.999969  74.901749
  511.155670  74.881889
  512.542480  74.858017
  514.206665  74.829323
  516.203674  74.794807
  518.600098  74.753281
  521.475830  74.703285
  524.926636  74.643066
  529.067688  74.570473
  534.036926  74.482895
  540.000000  74.377136
  541.155640  74.356613
  542.542480  74.331955
  544.206665  74.302307
  546.203674  74.266655
  548.600098  74.223770
  551.475830  74.172150
  554.926636  74.109993
  559.067688  74.035088
  564.036926  73.944756
  570.000000  73.835716
  571.155640  73.814560
  572.542480  73.789131
  574.206665  73.758575
  576.203674  73.721840
  578.600098  73.677650
  581.475830  73.624474
  584.926636  73.560455
  589.067688  73.483330
  594.036926  73.390350
  600.000000  73.278168
ZONE T="Observed Head for D3", I=5, F=POINT
  0.000000  0.000000
  0.000000  0.000000
  0.000000  0.000000
  0.000000  0.000000
  0.000000  0.000000
ZONE T="Simulated Head for D4", I=200, F=POINT
  1.155682  79.819979
  2.542501  79.497365
  4.206684  79.103123
  6.203703  78.684925
  8.600127  78.266252
  11.475835  77.855731
  14.926685  77.453824